##File Type: Far field
##File Format: 3
##Source: dipole
##Date: 2017-08-07 18:33:08  
** File exported by FEKO kernel version 7.0.2-787

#Request Name: FarField1
#Frequency:   2.50000000E+009
#Coordinate System: Spherical
#No. of Theta Samples: 45
#No. of Phi Samples: 1
#Result Type: Directivity
#No. of Header Lines: 1
#       "Theta"             "Phi"           "Re(Etheta)"       "Im(Etheta)"        "Re(Ephi)"         "Im(Ephi)"   "Directivity(Theta)" "Directivity(Phi)" "Directivity(Total)"
    2.00000000E+000    0.00000000E+000   -9.94747096E-003    4.10672717E-003    0.00000000E+000    0.00000000E+000   -2.85354252E+001   -9.99999900E+002   -2.85354252E+001
    6.00000000E+000    0.00000000E+000   -2.98420707E-002    1.23213142E-002    0.00000000E+000    0.00000000E+000   -1.89929689E+001   -9.99999900E+002   -1.89929689E+001
    1.00000000E+001    0.00000000E+000   -4.97338213E-002    2.05384943E-002    0.00000000E+000    0.00000000E+000   -1.45562530E+001   -9.99999900E+002   -1.45562530E+001
    1.40000000E+001    0.00000000E+000   -6.96148058E-002    2.87573383E-002    0.00000000E+000    0.00000000E+000   -1.16348775E+001   -9.99999900E+002   -1.16348775E+001
    1.80000000E+001    0.00000000E+000   -8.94682793E-002    3.69730159E-002    0.00000000E+000    0.00000000E+000   -9.45503606E+000   -9.99999900E+002   -9.45503606E+000
    2.20000000E+001    0.00000000E+000   -1.09265541E-001    4.51754112E-002    0.00000000E+000    0.00000000E+000   -7.71816059E+000   -9.99999900E+002   -7.71816059E+000
    2.60000000E+001    0.00000000E+000   -1.28963215E-001    5.33479149E-002    0.00000000E+000    0.00000000E+000   -6.27782825E+000   -9.99999900E+002   -6.27782825E+000
    3.00000000E+001    0.00000000E+000   -1.48501062E-001    6.14664498E-002    0.00000000E+000    0.00000000E+000   -5.05180276E+000   -9.99999900E+002   -5.05180276E+000
    3.40000000E+001    0.00000000E+000   -1.67800448E-001    6.94987822E-002    0.00000000E+000    0.00000000E+000   -3.98972525E+000   -9.99999900E+002   -3.98972525E+000
    3.80000000E+001    0.00000000E+000   -1.86763583E-001    7.74041708E-002    0.00000000E+000    0.00000000E+000   -3.05889950E+000   -9.99999900E+002   -3.05889950E+000
    4.20000000E+001    0.00000000E+000   -2.05273630E-001    8.51333991E-002    0.00000000E+000    0.00000000E+000   -2.23721582E+000   -9.99999900E+002   -2.23721582E+000
    4.60000000E+001    0.00000000E+000   -2.23195768E-001    9.26292233E-002    0.00000000E+000    0.00000000E+000   -1.50929284E+000   -9.99999900E+002   -1.50929284E+000
    5.00000000E+001    0.00000000E+000   -2.40379235E-001    9.98272588E-002    0.00000000E+000    0.00000000E+000   -8.64219934E-001   -9.99999900E+002   -8.64219934E-001
    5.40000000E+001    0.00000000E+000   -2.56660369E-001    1.06657301E-001    0.00000000E+000    0.00000000E+000   -2.94159661E-001   -9.99999900E+002   -2.94159661E-001
    5.80000000E+001    0.00000000E+000   -2.71866577E-001    1.13045059E-001    0.00000000E+000    0.00000000E+000    2.06558355E-001   -9.99999900E+002    2.06558355E-001
    6.20000000E+001    0.00000000E+000   -2.85821118E-001    1.18914250E-001    0.00000000E+000    0.00000000E+000    6.42047437E-001   -9.99999900E+002    6.42047437E-001
    6.60000000E+001    0.00000000E+000   -2.98348525E-001    1.24188979E-001    0.00000000E+000    0.00000000E+000    1.01528730E+000   -9.99999900E+002    1.01528730E+000
    7.00000000E+001    0.00000000E+000   -3.09280433E-001    1.28796298E-001    0.00000000E+000    0.00000000E+000    1.32842494E+000   -9.99999900E+002    1.32842494E+000
    7.40000000E+001    0.00000000E+000   -3.18461547E-001    1.32668830E-001    0.00000000E+000    0.00000000E+000    1.58299198E+000   -9.99999900E+002    1.58299198E+000
    7.80000000E+001    0.00000000E+000   -3.25755418E-001    1.35747312E-001    0.00000000E+000    0.00000000E+000    1.78006270E+000   -9.99999900E+002    1.78006270E+000
    8.20000000E+001    0.00000000E+000   -3.31049736E-001    1.37982927E-001    0.00000000E+000    0.00000000E+000    1.92036847E+000   -9.99999900E+002    1.92036847E+000
    8.60000000E+001    0.00000000E+000   -3.34260813E-001    1.39339278E-001    0.00000000E+000    0.00000000E+000    2.00437860E+000   -9.99999900E+002    2.00437860E+000
    9.00000000E+001    0.00000000E+000   -3.35337007E-001    1.39793896E-001    0.00000000E+000    0.00000000E+000    2.03235416E+000   -9.99999900E+002    2.03235416E+000
    9.40000000E+001    0.00000000E+000   -3.34260861E-001    1.39339186E-001    0.00000000E+000    0.00000000E+000    2.00437883E+000   -9.99999900E+002    2.00437883E+000
    9.80000000E+001    0.00000000E+000   -3.31049832E-001    1.37982746E-001    0.00000000E+000    0.00000000E+000    1.92036892E+000   -9.99999900E+002    1.92036892E+000
    1.02000000E+002    0.00000000E+000   -3.25755559E-001    1.35747046E-001    0.00000000E+000    0.00000000E+000    1.78006337E+000   -9.99999900E+002    1.78006337E+000
    1.06000000E+002    0.00000000E+000   -3.18461729E-001    1.32668485E-001    0.00000000E+000    0.00000000E+000    1.58299287E+000   -9.99999900E+002    1.58299287E+000
    1.10000000E+002    0.00000000E+000   -3.09280652E-001    1.28795883E-001    0.00000000E+000    0.00000000E+000    1.32842604E+000   -9.99999900E+002    1.32842604E+000
    1.14000000E+002    0.00000000E+000   -2.98348775E-001    1.24188504E-001    0.00000000E+000    0.00000000E+000    1.01528860E+000   -9.99999900E+002    1.01528860E+000
    1.18000000E+002    0.00000000E+000   -2.85821395E-001    1.18913726E-001    0.00000000E+000    0.00000000E+000    6.42048938E-001   -9.99999900E+002    6.42048938E-001
    1.22000000E+002    0.00000000E+000   -2.71866873E-001    1.13044497E-001    0.00000000E+000    0.00000000E+000    2.06560040E-001   -9.99999900E+002    2.06560040E-001
    1.26000000E+002    0.00000000E+000   -2.56660677E-001    1.06656714E-001    0.00000000E+000    0.00000000E+000   -2.94157803E-001   -9.99999900E+002   -2.94157803E-001
    1.30000000E+002    0.00000000E+000   -2.40379549E-001    9.98266587E-002    0.00000000E+000    0.00000000E+000   -8.64217915E-001   -9.99999900E+002   -8.64217915E-001
    1.34000000E+002    0.00000000E+000   -2.23196083E-001    9.26286225E-002    0.00000000E+000    0.00000000E+000   -1.50929067E+000   -9.99999900E+002   -1.50929067E+000
    1.38000000E+002    0.00000000E+000   -2.05273939E-001    8.51328094E-002    0.00000000E+000    0.00000000E+000   -2.23721352E+000   -9.99999900E+002   -2.23721352E+000
    1.42000000E+002    0.00000000E+000   -1.86763879E-001    7.74036033E-002    0.00000000E+000    0.00000000E+000   -3.05889707E+000   -9.99999900E+002   -3.05889707E+000
    1.46000000E+002    0.00000000E+000   -1.67800727E-001    6.94982469E-002    0.00000000E+000    0.00000000E+000   -3.98972272E+000   -9.99999900E+002   -3.98972272E+000
    1.50000000E+002    0.00000000E+000   -1.48501319E-001    6.14659561E-002    0.00000000E+000    0.00000000E+000   -5.05180013E+000   -9.99999900E+002   -5.05180013E+000
    1.54000000E+002    0.00000000E+000   -1.28963446E-001    5.33474708E-002    0.00000000E+000    0.00000000E+000   -6.27782554E+000   -9.99999900E+002   -6.27782554E+000
    1.58000000E+002    0.00000000E+000   -1.09265742E-001    4.51750238E-002    0.00000000E+000    0.00000000E+000   -7.71815780E+000   -9.99999900E+002   -7.71815780E+000
    1.62000000E+002    0.00000000E+000   -8.94684478E-002    3.69726911E-002    0.00000000E+000    0.00000000E+000   -9.45503322E+000   -9.99999900E+002   -9.45503322E+000
    1.66000000E+002    0.00000000E+000   -6.96149392E-002    2.87570807E-002    0.00000000E+000    0.00000000E+000   -1.16348746E+001   -9.99999900E+002   -1.16348746E+001
    1.70000000E+002    0.00000000E+000   -4.97339179E-002    2.05383078E-002    0.00000000E+000    0.00000000E+000   -1.45562501E+001   -9.99999900E+002   -1.45562501E+001
    1.74000000E+002    0.00000000E+000   -2.98421291E-002    1.23212012E-002    0.00000000E+000    0.00000000E+000   -1.89929660E+001   -9.99999900E+002   -1.89929660E+001
    1.78000000E+002    0.00000000E+000   -9.94749053E-003    4.10668936E-003    0.00000000E+000    0.00000000E+000   -2.85354222E+001   -9.99999900E+002   -2.85354222E+001
