##File Type: Far field
##File Format: 3
##Source: Horn
##Date: 2017-08-08 10:37:39  
** File exported by FEKO kernel version 7.0.2-787

#Request Name: 3d
#Frequency:   2.50000000E+009
#Coordinate System: Spherical
#No. of Theta Samples: 45
#No. of Phi Samples: 90
#Result Type: Directivity
#No. of Header Lines: 1
#       "Theta"             "Phi"           "Re(Etheta)"       "Im(Etheta)"        "Re(Ephi)"         "Im(Ephi)"   "Directivity(Theta)" "Directivity(Phi)" "Directivity(Total)"
    2.00000000E+000    0.00000000E+000    1.96086969E-001    9.40748157E-001   -3.42654862E-004    1.07522266E-003   -7.50947200E+000   -6.61135952E+001   -7.50946601E+000
    6.00000000E+000    0.00000000E+000    7.70778302E-001    4.67297354E-001   -3.42391550E-004    1.50133669E-003   -8.06558769E+000   -6.34138776E+001   -8.06557501E+000
    1.00000000E+001    0.00000000E+000    7.78904247E-001   -2.42166011E-001   -2.52186254E-005    1.52803693E-003   -8.93322813E+000   -6.34797799E+001   -8.93321289E+000
    1.40000000E+001    0.00000000E+000    2.36520724E-001   -7.07237723E-001    3.76009267E-004    8.56510011E-004   -9.71189793E+000   -6.77435970E+001   -9.71189110E+000
    1.80000000E+001    0.00000000E+000   -4.72613343E-001   -6.09718736E-001    4.30856250E-004   -4.87179367E-004   -9.41759198E+000   -7.09004327E+001   -9.41758889E+000
    2.20000000E+001    0.00000000E+000   -8.45772907E-001   -3.32278938E-002   -1.26579406E-004   -2.06525637E-003   -8.61186627E+000   -6.08478768E+001   -8.61184032E+000
    2.60000000E+001    0.00000000E+000   -6.31234633E-001    5.83366509E-001   -1.11399015E-003   -3.29397469E-003   -8.47852575E+000   -5.63389301E+001   -8.47845467E+000
    3.00000000E+001    0.00000000E+000   -2.18536794E-002    7.81401292E-001   -1.97335986E-003   -3.85087459E-003   -9.30276160E+000   -5.44397962E+001   -9.30262853E+000
    3.40000000E+001    0.00000000E+000    5.05748777E-001    4.40536009E-001   -2.15783605E-003   -3.86913717E-003   -1.06329258E+001   -5.42352158E+001   -1.06327363E+001
    3.80000000E+001    0.00000000E+000    5.74015680E-001   -1.44182787E-001   -1.50611023E-003   -3.76129193E-003   -1.17194531E+001   -5.50110496E+001   -1.17192496E+001
    4.20000000E+001    0.00000000E+000    1.81927132E-001   -5.19234193E-001   -3.03503154E-004   -3.85065277E-003   -1.23534921E+001   -5.54260560E+001   -1.23532781E+001
    4.60000000E+001    0.00000000E+000   -3.37970873E-001   -4.25793601E-001    9.78410729E-004   -4.13454149E-003   -1.24577048E+001   -5.45984536E+001   -1.24574395E+001
    5.00000000E+001    0.00000000E+000   -6.06327799E-001    4.11101866E-002    2.01131965E-003   -4.34505881E-003   -1.14895709E+001   -5.35605571E+001   -1.14893013E+001
    5.40000000E+001    0.00000000E+000   -4.67843263E-001    5.54825418E-001    2.75461023E-003   -4.20128507E-003   -9.94793590E+000   -5.31429744E+001   -9.94772780E+000
    5.80000000E+001    0.00000000E+000   -5.23599679E-002    8.12924929E-001    3.36439357E-003   -3.62133347E-003   -8.94465113E+000   -5.32838362E+001   -8.94449123E+000
    6.20000000E+001    0.00000000E+000    3.64876074E-001    7.16119079E-001    4.00413003E-003   -2.75330539E-003   -9.06157614E+000   -5.34319905E+001   -9.06141738E+000
    6.60000000E+001    0.00000000E+000    5.55486480E-001    3.73226408E-001    4.71909134E-003   -1.85530010E-003   -1.06521861E+001   -5.30622876E+001   -1.06519368E+001
    7.00000000E+001    0.00000000E+000    4.46334583E-001   -1.71065795E-002    5.43511547E-003   -1.14697021E-003   -1.41640541E+001   -5.22702405E+001   -1.41633824E+001
    7.40000000E+001    0.00000000E+000    1.09393111E-001   -2.96032372E-001    6.03634992E-003   -7.28838033E-004   -1.71809583E+001   -5.14852949E+001   -1.71793467E+001
    7.80000000E+001    0.00000000E+000   -3.15929534E-001   -4.08753586E-001    6.44407366E-003   -5.86507930E-004   -1.29003010E+001   -5.09446021E+001   -1.28996197E+001
    8.20000000E+001    0.00000000E+000   -6.98842627E-001   -3.94546859E-001    6.64979792E-003   -6.41232647E-004   -9.07445571E+000   -5.06672743E+001   -9.07415476E+000
    8.60000000E+001    0.00000000E+000   -9.54029625E-001   -3.36319027E-001    6.70117594E-003   -8.01582754E-004   -7.06368204E+000   -5.05789185E+001   -7.06348873E+000
    9.00000000E+001    0.00000000E+000   -1.04114997E+000   -3.07243113E-001    6.66432773E-003   -9.93998404E-004   -6.45074333E+000   -5.05929571E+001   -6.45057601E+000
    9.40000000E+001    0.00000000E+000   -9.49645843E-001   -3.35401770E-001    6.58760558E-003   -1.17386765E-003   -7.10188306E+000   -5.06533310E+001   -7.10169136E+000
    9.80000000E+001    0.00000000E+000   -6.90839663E-001   -3.92073132E-001    6.48234449E-003   -1.32827270E-003   -9.16347838E+000   -5.07503764E+001   -9.16317702E+000
    1.02000000E+002    0.00000000E+000   -3.05840309E-001   -4.03840713E-001    6.32636016E-003   -1.47697841E-003   -1.30706396E+001   -5.09100729E+001   -1.30699255E+001
    1.06000000E+002    0.00000000E+000    1.19421073E-001   -2.88217208E-001    6.08760715E-003   -1.66779332E-003   -1.72811478E+001   -5.11603924E+001   -1.72793705E+001
    1.10000000E+002    0.00000000E+000    4.54041556E-001   -6.98878778E-003    5.75566752E-003   -1.95635185E-003   -1.40206988E+001   -5.14869051E+001   -1.40199205E+001
    1.14000000E+002    0.00000000E+000    5.59357499E-001    3.83772696E-001    5.35905765E-003   -2.36716729E-003   -1.05345294E+001   -5.18077898E+001   -1.05342055E+001
    1.18000000E+002    0.00000000E+000    3.65003653E-001    7.24503601E-001    4.94715732E-003   -2.85304972E-003   -8.98050212E+000   -5.20295646E+001   -8.98028691E+000
    1.22000000E+002    0.00000000E+000   -5.40362336E-002    8.17105488E-001    4.53846646E-003   -3.28903015E-003   -8.89912535E+000   -5.21922142E+001   -8.89892190E+000
    1.26000000E+002    0.00000000E+000   -4.68403806E-001    5.54609935E-001    4.07537504E-003   -3.52848426E-003   -9.94558046E+000   -5.25308505E+001   -9.94534100E+000
    1.30000000E+002    0.00000000E+000   -6.03621025E-001    3.84941079E-002    3.44452436E-003   -3.50028451E-003   -1.15307262E+001   -5.33404537E+001   -1.15304399E+001
    1.34000000E+002    0.00000000E+000   -3.32144639E-001   -4.27814088E-001    2.58150142E-003   -3.26825083E-003   -1.24898535E+001   -5.47717432E+001   -1.24895967E+001
    1.38000000E+002    0.00000000E+000    1.88410138E-001   -5.18764102E-001    1.58873039E-003   -2.97640420E-003   -1.23261329E+001   -5.66010547E+001   -1.23259706E+001
    1.42000000E+002    0.00000000E+000    5.78193371E-001   -1.41835838E-001    7.39893747E-004   -2.70002737E-003   -1.16683965E+001   -5.82218140E+001   -1.16683004E+001
    1.46000000E+002    0.00000000E+000    5.06524106E-001    4.42259671E-001    3.13903326E-004   -2.34135998E-003   -1.06107155E+001   -5.96969071E+001   -1.06106619E+001
    1.50000000E+002    0.00000000E+000   -2.28199637E-002    7.80445060E-001    3.70878737E-004   -1.70885444E-003   -9.31308152E+000   -6.23096419E+001   -9.31305974E+000
    1.54000000E+002    0.00000000E+000   -6.31027030E-001    5.80167991E-001    6.83593184E-004   -7.49272931E-004   -8.50200725E+000   -6.70407119E+001   -8.50200117E+000
    1.58000000E+002    0.00000000E+000   -8.42883753E-001   -3.59086578E-002    9.23752117E-004    2.88585680E-004   -8.64041099E+000   -6.74480997E+001   -8.64040527E+000
    1.62000000E+002    0.00000000E+000   -4.68348044E-001   -6.09176766E-001    9.49210569E-004    9.65232536E-004   -9.45183621E+000   -6.45327862E+001   -9.45182273E+000
    1.66000000E+002    0.00000000E+000    2.39232820E-001   -7.03289026E-001    9.09873834E-004    9.90035532E-004   -9.74544656E+000   -6.45915576E+001   -9.74543233E+000
    1.70000000E+002    0.00000000E+000    7.78221751E-001   -2.37416528E-001    1.05091625E-003    4.92843006E-004   -8.95508800E+000   -6.58689347E+001   -8.95507916E+000
    1.74000000E+002    0.00000000E+000    7.67674480E-001    4.69670504E-001    1.39614843E-003   -4.12315516E-005   -8.07924801E+000   -6.42612218E+001   -8.07923754E+000
    1.78000000E+002    0.00000000E+000    1.93493542E-001    9.39712645E-001    1.62910192E-003   -1.46204990E-004   -7.52340362E+000   -6.28898353E+001   -7.52339100E+000
    2.00000000E+000    4.00000000E+000    1.94629816E-001    9.38974895E-001   -1.47385589E-002   -6.20281961E-002   -7.52786439E+000   -3.10733310E+001   -7.50870950E+000
    6.00000000E+000    4.00000000E+000    7.68069232E-001    4.69087950E-001   -4.96931623E-002   -2.42208861E-002   -8.07892971E+000   -3.23120185E+001   -8.06257445E+000
    1.00000000E+001    4.00000000E+000    7.79758803E-001   -2.37429171E-001   -3.94209662E-002    2.06376058E-002   -8.93936697E+000   -3.41971559E+001   -8.92644410E+000
    1.40000000E+001    4.00000000E+000    2.43012987E-001   -7.04500731E-001    3.59076383E-003    3.55646686E-002   -9.71776398E+000   -3.60992174E+001   -9.70778376E+000
    1.80000000E+001    4.00000000E+000   -4.64124495E-001   -6.14078502E-001    4.15489271E-002    7.15897865E-003   -9.43672716E+000   -3.46653864E+001   -9.42371745E+000
    2.20000000E+001    4.00000000E+000   -8.42655346E-001   -4.46190314E-002    3.97555109E-002   -4.22809607E-002   -8.63848056E+000   -3.18896864E+001   -8.61798600E+000
    2.60000000E+001    4.00000000E+000   -6.38390691E-001    5.71663737E-001   -4.74136257E-003   -7.10390607E-002   -8.50465540E+000   -3.01143922E+001   -8.47477984E+000
    3.00000000E+001    4.00000000E+000   -3.64909212E-002    7.78037726E-001   -5.95398512E-002   -5.20473394E-002   -9.33408378E+000   -2.92021169E+001   -9.28954359E+000
    3.40000000E+001    4.00000000E+000    4.93055755E-001    4.48521101E-001   -8.33661313E-002    4.41142666E-003   -1.06871194E+001   -2.87317029E+001   -1.06195202E+001
    3.80000000E+001    4.00000000E+000    5.71975759E-001   -1.31109292E-001   -5.96900630E-002    5.97455877E-002   -1.17936903E+001   -2.86312591E+001   -1.17046538E+001
    4.20000000E+001    4.00000000E+000    1.90963568E-001   -5.12470745E-001   -8.00768541E-003    7.89295546E-002   -1.24055721E+001   -2.91743739E+001   -1.23151293E+001
    4.60000000E+001    4.00000000E+000   -3.26833399E-001   -4.33119005E-001    3.48262841E-002    5.63716697E-002   -1.24740825E+001   -3.07383661E+001   -1.24097934E+001
    5.00000000E+001    4.00000000E+000   -6.05082433E-001    2.16332532E-002    4.39589216E-002    1.54566691E-002   -1.15218010E+001   -3.37964505E+001   -1.14961540E+001
    5.40000000E+001    4.00000000E+000   -4.82945499E-001    5.33519526E-001    2.15628396E-002   -1.31987794E-002   -1.00213530E+001   -3.91075178E+001   -1.00159963E+001
    5.80000000E+001    4.00000000E+000   -8.05616633E-002    8.01330513E-001   -1.06982123E-002   -1.36915425E-002   -9.04373115E+000   -4.23648635E+001   -9.04171014E+000
    6.20000000E+001    4.00000000E+000    3.33978827E-001    7.19759691E-001   -3.04955804E-002    8.91378023E-003   -9.17302098E+000   -3.71228522E+001   -9.16606348E+000
    6.60000000E+001    4.00000000E+000    5.33079498E-001    3.89059598E-001   -2.86427159E-002    3.76684509E-002   -1.07733480E+001   -3.36624832E+001   -1.07510762E+001
    7.00000000E+001    4.00000000E+000    4.38965020E-001    2.00679665E-003   -1.04693578E-002    5.70918417E-002   -1.43149506E+001   -3.18885189E+001   -1.42396743E+001
    7.40000000E+001    4.00000000E+000    1.17373196E-001   -2.83307731E-001    1.16265469E-002    6.08497053E-002   -1.74305256E+001   -3.13227448E+001   -1.72568065E+001
    7.80000000E+001    4.00000000E+000   -2.96598142E-001   -4.08620475E-001    2.66665709E-002    5.13521748E-002   -1.30992403E+001   -3.19155882E+001   -1.30425755E+001
    8.20000000E+001    4.00000000E+000   -6.73235532E-001   -4.08039094E-001    2.95722972E-002    3.48183533E-002   -9.24153051E+000   -3.39687513E+001   -9.22693121E+000
    8.60000000E+001    4.00000000E+000   -9.25921141E-001   -3.59852431E-001    2.12485729E-002    1.64707553E-002   -7.22124384E+000   -3.85735326E+001   -7.21806406E+000
    9.00000000E+001    4.00000000E+000   -1.01247459E+000   -3.34311263E-001    6.47497309E-003   -1.56938833E-003   -6.60653611E+000   -5.06909588E+001   -6.60636655E+000
    9.40000000E+001    4.00000000E+000   -9.21552318E-001   -3.58539475E-001   -8.31858901E-003   -1.95559829E-002   -7.26109837E+000   -4.06157600E+001   -7.25909289E+000
    9.80000000E+001    4.00000000E+000   -6.65340128E-001   -4.04817639E-001   -1.67485637E-002   -3.77804449E-002   -9.33493920E+000   -3.48390753E+001   -9.32272796E+000
    1.02000000E+002    4.00000000E+000   -2.86827689E-001   -4.02706253E-001   -1.41466325E-002   -5.42343030E-002   -1.32818734E+001   -3.21922873E+001   -1.32264151E+001
    1.06000000E+002    4.00000000E+000    1.26776918E-001   -2.74395328E-001    2.90095163E-004   -6.38698843E-002   -1.75558324E+001   -3.10576275E+001   -1.73661247E+001
    1.10000000E+002    4.00000000E+000    4.45744641E-001    1.31266177E-002    2.14786464E-002   -6.06492223E-002   -1.41781524E+001   -3.09939925E+001   -1.40886739E+001
    1.14000000E+002    4.00000000E+000    5.35861090E-001    4.00355079E-001    3.85774663E-002   -4.22399270E-002   -1.06563761E+001   -3.20149329E+001   -1.06247282E+001
    1.18000000E+002    4.00000000E+000    3.33107922E-001    7.28601357E-001    3.94069460E-002   -1.48306919E-002   -9.08950164E+000   -3.46769031E+001   -9.07752197E+000
    1.22000000E+002    4.00000000E+000   -8.28854754E-002    8.05802325E-001    1.87686479E-002    6.49499415E-003   -8.99336089E+000   -4.12037521E+001   -8.99075105E+000
    1.26000000E+002    4.00000000E+000   -4.83673105E-001    5.33673865E-001   -1.42809110E-002    5.28030811E-003   -1.00140798E+001   -4.35120169E+001   -1.00121394E+001
    1.30000000E+002    4.00000000E+000   -6.02142984E-001    1.96850280E-002   -3.78051688E-002   -2.32638818E-002   -1.15650081E+001   -3.42180098E+001   -1.15414951E+001
    1.34000000E+002    4.00000000E+000   -3.20615594E-001   -4.34138431E-001   -3.05156980E-002   -6.34290211E-002   -1.25206741E+001   -3.02136865E+001   -1.24474228E+001
    1.38000000E+002    4.00000000E+000    1.97758691E-001   -5.10869784E-001    9.82162254E-003   -8.51888496E-002   -1.23910313E+001   -2.84986371E+001   -1.22858941E+001
    1.42000000E+002    4.00000000E+000    5.76308078E-001   -1.27830670E-001    5.90458133E-002   -6.56874101E-002   -1.17419648E+001   -2.82420011E+001   -1.16458115E+001
    1.46000000E+002    4.00000000E+000    4.93934487E-001    4.50733728E-001    8.12951581E-002   -1.04693784E-002   -1.06592805E+001   -2.88909096E+001   -1.05945098E+001
    1.50000000E+002    4.00000000E+000   -3.72456178E-002    7.77118718E-001    5.76536408E-002    4.61313783E-002   -9.34392766E+000   -2.97980443E+001   -9.30498514E+000
    1.54000000E+002    4.00000000E+000   -6.37819113E-001    5.68248031E-001    4.29823091E-003    6.63011774E-002   -8.53208288E+000   -3.07150007E+001   -8.50589006E+000
    1.58000000E+002    4.00000000E+000   -8.39373442E-001   -4.75365029E-002   -3.85867518E-002    3.98619911E-002   -8.67062823E+000   -3.22810724E+001   -8.65175718E+000
    1.62000000E+002    4.00000000E+000   -4.59623301E-001   -6.13677515E-001   -3.96039486E-002   -6.93325106E-003   -9.47094735E+000   -3.50777678E+001   -9.45902104E+000
    1.66000000E+002    4.00000000E+000    2.45714796E-001   -7.00624283E-001   -1.88390975E-003   -3.35363170E-002   -9.75015251E+000   -3.66396491E+001   -9.74127296E+000
    1.70000000E+002    4.00000000E+000    7.78890531E-001   -2.32754711E-001    4.05171526E-002   -1.82562267E-002   -8.96264219E+000   -3.42081238E+001   -8.94968270E+000
    1.74000000E+002    4.00000000E+000    7.64756679E-001    4.71365976E-001    5.05482962E-002    2.58958469E-002   -8.09469628E+000   -3.20773661E+001   -8.07737218E+000
    1.78000000E+002    4.00000000E+000    1.91906219E-001    9.37864494E-001    1.58316011E-002    6.28988950E-002   -7.54270450E+000   -3.09240069E+001   -7.52281338E+000
    2.00000000E+000    8.00000000E+000    1.90287712E-001    9.33485565E-001   -2.86819928E-002   -1.24982560E-001   -7.58467227E+000   -2.50037507E+001   -7.50669433E+000
    6.00000000E+000    8.00000000E+000    7.59808105E-001    4.74189217E-001   -9.85271432E-002   -5.08587724E-002   -8.12100926E+000   -2.62666325E+001   -8.05495285E+000
    1.00000000E+001    8.00000000E+000    7.81975023E-001   -2.23325306E-001   -7.98064063E-002    3.83893101E-002   -8.95926616E+000   -2.82189274E+001   -8.90806783E+000
    1.40000000E+001    8.00000000E+000    2.62260948E-001   -6.95951972E-001    4.20561441E-003    7.05460459E-002   -9.73536792E+000   -3.01787788E+001   -9.69632972E+000
    1.80000000E+001    8.00000000E+000   -4.38198098E-001   -6.26471147E-001    8.07591682E-002    1.81510516E-002   -9.49591586E+000   -2.88057806E+001   -9.44530256E+000
    2.20000000E+001    8.00000000E+000   -8.31865062E-001   -7.83582606E-002    8.16551380E-002   -7.74917736E-002   -8.72421760E+000   -2.61350042E+001   -8.64609197E+000
    2.60000000E+001    8.00000000E+000   -6.57917807E-001    5.36047483E-001   -1.40971382E-003   -1.36354736E-001   -8.58909197E+000   -2.44697710E+001   -8.47838642E+000
    3.00000000E+001    8.00000000E+000   -7.90747931E-002    7.66470142E-001   -1.08402639E-001   -1.04398422E-001   -9.42775487E+000   -2.36129264E+001   -9.26515808E+000
    3.40000000E+001    8.00000000E+000    4.54796747E-001    4.71045002E-001   -1.59967074E-001    1.94873743E-003   -1.08418670E+001   -2.30823832E+001   -1.05900523E+001
    3.80000000E+001    8.00000000E+000    5.64467700E-001   -9.17944669E-002   -1.21471514E-001    1.10851204E-001   -1.20174980E+001   -2.28430399E+001   -1.16724623E+001
    4.20000000E+001    8.00000000E+000    2.17081932E-001   -4.89881015E-001   -2.63937512E-002    1.54287061E-001   -1.25831871E+001   -2.32717790E+001   -1.22275383E+001
    4.60000000E+001    8.00000000E+000   -2.92179700E-001   -4.51607881E-001    5.66875021E-002    1.17914347E-001   -1.25498753E+001   -2.48292957E+001   -1.23002430E+001
    5.00000000E+001    8.00000000E+000   -5.97297100E-001   -3.44508700E-002    7.88410797E-002    4.26496575E-002   -1.16254077E+001   -2.81138300E+001   -1.15289997E+001
    5.40000000E+001    8.00000000E+000   -5.22731627E-001    4.68667233E-001    4.05847392E-002   -1.43249162E-002   -1.02360750E+001   -3.44864695E+001   -1.02197847E+001
    5.80000000E+001    8.00000000E+000   -1.60672647E-001    7.61854265E-001   -1.99178441E-002   -2.08276307E-002   -9.33721086E+000   -3.79701873E+001   -9.33126534E+000
    6.20000000E+001    8.00000000E+000    2.42659165E-001    7.23779755E-001   -6.08218911E-002    1.68427929E-002   -9.50888689E+000   -3.11615561E+001   -9.47930422E+000
    6.60000000E+001    8.00000000E+000    4.63630074E-001    4.30128485E-001   -6.28877312E-002    6.89664807E-002   -1.11434376E+001   -2.77628388E+001   -1.10498632E+001
    7.00000000E+001    8.00000000E+000    4.12284235E-001    5.58042090E-002   -3.35706166E-002    1.06555604E-001   -1.47808597E+001   -2.62011170E+001   -1.44784805E+001
    7.40000000E+001    8.00000000E+000    1.36533168E-001   -2.44599065E-001    5.54186471E-003    1.16228879E-001   -1.82166027E+001   -2.58474965E+001   -1.75252954E+001
    7.80000000E+001    8.00000000E+000   -2.41726574E-001   -4.03774382E-001    3.41556273E-002    1.00626288E-001   -1.37105791E+001   -2.66358323E+001   -1.34945983E+001
    8.20000000E+001    8.00000000E+000   -5.97073366E-001   -4.41190111E-001    4.20646576E-002    7.01586686E-002   -9.75097846E+000   -2.89082918E+001   -9.69856658E+000
    8.60000000E+001    8.00000000E+000   -8.40220539E-001   -4.21550302E-001    3.00259769E-002    3.44018564E-002   -7.70071296E+000   -3.39724812E+001   -7.69047778E+000
    9.00000000E+001    8.00000000E+000   -9.24361786E-001   -4.06277106E-001    6.30485340E-003   -1.98299849E-003   -7.07974269E+000   -5.07604695E+001   -7.07955661E+000
    9.40000000E+001    8.00000000E+000   -8.36066812E-001   -4.19555448E-001   -1.74360059E-002   -3.82898040E-002   -7.74338798E+000   -3.46836043E+001   -7.73461144E+000
    9.80000000E+001    8.00000000E+000   -5.89690985E-001   -4.36735007E-001   -2.95805846E-002   -7.38546163E-002   -9.85200099E+000   -2.91499351E+001   -9.80124926E+000
    1.02000000E+002    8.00000000E+000   -2.32871190E-001   -3.96324343E-001   -2.19739778E-002   -1.04142243E-001   -1.39146041E+001   -2.66219300E+001   -1.36877943E+001
    1.06000000E+002    8.00000000E+000    1.44592192E-001   -2.34176661E-001    6.04557332E-003   -1.19770530E-001   -1.83700650E+001   -2.55855891E+001   -1.76150838E+001
    1.10000000E+002    8.00000000E+000    4.17423061E-001    6.80920376E-002    4.42840328E-002   -1.10527629E-001   -1.46380573E+001   -2.56476638E+001   -1.43068073E+001
    1.14000000E+002    8.00000000E+000    4.64780199E-001    4.42073092E-001    7.26089539E-002   -7.38579720E-002   -1.10204769E+001   -2.68588325E+001   -1.09087011E+001
    1.18000000E+002    8.00000000E+000    2.40543108E-001    7.32819337E-001    6.96720579E-002   -2.29835368E-002   -9.41930829E+000   -2.98538488E+001   -9.38019063E+000
    1.22000000E+002    8.00000000E+000   -1.63589975E-001    7.66383492E-001    2.81447473E-002    1.35379369E-002   -9.28121097E+000   -3.72718009E+001   -9.27431841E+000
    1.26000000E+002    8.00000000E+000   -5.23408420E-001    4.69139196E-001   -3.29136303E-002    6.50987230E-003   -1.02259486E+001   -3.66494690E+001   -1.02160645E+001
    1.30000000E+002    8.00000000E+000   -5.93954307E-001   -3.55750671E-002   -7.21430593E-002   -5.00986845E-002   -1.16730268E+001   -2.82905623E+001   -1.15794126E+001
    1.34000000E+002    8.00000000E+000   -2.85602033E-001   -4.51382798E-001   -5.18470835E-002   -1.24377372E-001   -1.26103944E+001   -2.45729953E+001   -1.23424419E+001
    1.38000000E+002    8.00000000E+000    2.23956690E-001   -4.86995568E-001    2.85334008E-002   -1.59865471E-001   -1.25799617E+001   -2.29523533E+001   -1.21985996E+001
    1.42000000E+002    8.00000000E+000    5.68666736E-001   -8.76151519E-002    1.20858975E-001   -1.16282816E-001   -1.19645953E+001   -2.26721608E+001   -1.16104353E+001
    1.46000000E+002    8.00000000E+000    4.55601161E-001    4.73589624E-001    1.57730038E-001   -7.90684857E-003   -1.08102144E+001   -2.31944518E+001   -1.05663708E+001
    1.50000000E+002    8.00000000E+000   -7.96310213E-002    7.65457748E-001    1.06399105E-001    9.81144627E-002   -9.43846680E+000   -2.39523763E+001   -9.28751992E+000
    1.54000000E+002    8.00000000E+000   -6.56913533E-001    5.32420018E-001    1.12949223E-003    1.30982235E-001   -8.62054000E+000   -2.48190688E+001   -8.51755546E+000
    1.58000000E+002    8.00000000E+000   -8.28164578E-001   -8.13912846E-002   -8.00097962E-002    7.45291385E-002   -8.75956039E+000   -2.63877225E+001   -8.68521644E+000
    1.62000000E+002    8.00000000E+000   -4.33526948E-001   -6.26086534E-001   -7.82336523E-002   -1.80975690E-002   -9.52988421E+000   -2.90693717E+001   -9.48186309E+000
    1.66000000E+002    8.00000000E+000    2.64849200E-001   -6.92108601E-001   -2.11622796E-003   -6.83060198E-002   -9.76665535E+000   -3.04702935E+001   -9.72987801E+000
    1.70000000E+002    8.00000000E+000    7.80861608E-001   -2.18764031E-001    8.09280202E-002   -3.56572248E-002   -8.98400479E+000   -2.82311378E+001   -8.93265943E+000
    1.74000000E+002    8.00000000E+000    7.56291040E-001    4.76328316E-001    9.91565185E-002    5.27298981E-002   -8.13890683E+000   -2.61556426E+001   -8.07087616E+000
    1.78000000E+002    8.00000000E+000    1.87453493E-001    9.32296434E-001    2.95709375E-002    1.25786600E-001   -7.60044017E+000   -2.49373309E+001   -7.52098604E+000
    2.00000000E+000    1.20000000E+001    1.83152059E-001    9.24258925E-001   -4.17268142E-002   -1.87625276E-001   -7.68049202E+000   -2.14881569E+001   -7.50342631E+000
    6.00000000E+000    1.20000000E+001    7.45933429E-001    4.82314234E-001   -1.46287805E-001   -7.92857687E-002   -8.19262912E+000   -2.27409819E+001   -8.04285431E+000
    1.00000000E+001    1.20000000E+001    7.84889231E-001   -1.99975306E-001   -1.22040587E-001    5.33903586E-002   -8.99432836E+000   -2.46730179E+001   -8.87842203E+000
    1.40000000E+001    1.20000000E+001    2.93350725E-001   -6.80694447E-001   -3.01534692E-004    1.05817109E-001   -9.76475647E+000   -2.66724866E+001   -9.67713254E+000
    1.80000000E+001    1.20000000E+001   -3.94667571E-001   -6.44806874E-001    1.15857638E-001    3.54342438E-002   -9.59318557E+000   -2.54967999E+001   -9.48305580E+000
    2.20000000E+001    1.20000000E+001   -8.10940302E-001   -1.32523645E-001    1.26746233E-001   -1.02775550E-001   -8.86940097E+000   -2.29103486E+001   -8.70141873E+000
    2.60000000E+001    1.20000000E+001   -6.85592313E-001    4.76005301E-001    1.48366206E-002   -1.95990344E-001   -8.73369360E+000   -2.12941295E+001   -8.49928814E+000
    3.00000000E+001    1.20000000E+001   -1.46297718E-001    7.42697773E-001   -1.40070086E-001   -1.63256368E-001   -9.58207069E+000   -2.05104316E+001   -9.24480228E+000
    3.40000000E+001    1.20000000E+001    3.90449729E-001    5.02548586E-001   -2.25922958E-001   -2.00829482E-002   -1.10890243E+001   -2.00502495E+001   -1.05697021E+001
    3.80000000E+001    1.20000000E+001    5.46977140E-001   -2.91837313E-002   -1.87504064E-001    1.37747880E-001   -1.23919106E+001   -1.98290787E+001   -1.16715473E+001
    4.20000000E+001    1.20000000E+001    2.55582175E-001   -4.48687958E-001   -6.30208166E-002    2.13133523E-001   -1.29043357E+001   -2.02265880E+001   -1.21662102E+001
    4.60000000E+001    1.20000000E+001   -2.33350712E-001   -4.73920331E-001    5.61686298E-002    1.78063774E-001   -1.27067722E+001   -2.17401637E+001   -1.21955237E+001
    5.00000000E+001    1.20000000E+001   -5.73882925E-001   -1.20734792E-001    9.88658609E-002    8.10458437E-002   -1.17990843E+001   -2.50303518E+001   -1.15974625E+001
    5.40000000E+001    1.20000000E+001   -5.71809075E-001    3.59400057E-001    5.77735447E-002   -1.65262681E-003   -1.05727151E+001   -3.19255072E+001   -1.05410252E+001
    5.80000000E+001    1.20000000E+001   -2.77281560E-001    6.83533911E-001   -2.14077602E-002   -2.18139138E-002   -9.80682313E+000   -3.74595245E+001   -9.79937338E+000
    6.20000000E+001    1.20000000E+001    9.98156696E-002    7.09802730E-001   -8.27937016E-002    1.89162390E-002   -1.00558417E+001   -2.85827085E+001   -9.99529826E+000
    6.60000000E+001    1.20000000E+001    3.46533895E-001    4.77258090E-001   -9.64089412E-002    8.51192196E-002   -1.17495820E+001   -2.49782937E+001   -1.15478442E+001
    7.00000000E+001    1.20000000E+001    3.57940212E-001    1.31314872E-001   -6.68075598E-002    1.38132961E-001   -1.55390474E+001   -2.34448437E+001   -1.48871181E+001
    7.40000000E+001    1.20000000E+001    1.55634509E-001   -1.82310421E-001   -1.91850264E-002    1.56933296E-001   -1.95700447E+001   -2.31849129E+001   -1.80014532E+001
    7.80000000E+001    1.20000000E+001   -1.60410969E-001   -3.85343108E-001    2.01769372E-002    1.41096387E-001   -1.47526349E+001   -2.40854074E+001   -1.42736334E+001
    8.20000000E+001    1.20000000E+001   -4.74514778E-001   -4.75981617E-001    3.63929082E-002    1.01873091E-001   -1.06149198E+001   -2.64808271E+001   -1.05038419E+001
    8.60000000E+001    1.20000000E+001   -6.96467173E-001   -4.97748117E-001    2.85636260E-002    5.15783758E-002   -8.51366827E+000   -3.17525802E+001   -8.49311575E+000
    9.00000000E+001    1.20000000E+001   -7.74539373E-001   -4.97639924E-001    6.17292194E-003   -2.10553415E-003   -7.88195190E+000   -5.08758446E+001   -7.88173393E+000
    9.40000000E+001    1.20000000E+001   -6.92830554E-001   -4.94910892E-001   -1.62532441E-002   -5.57097959E-002   -8.56055335E+000   -3.18902421E+001   -8.54042498E+000
    9.80000000E+001    1.20000000E+001   -4.68214027E-001   -4.70050078E-001   -2.42269628E-002   -1.05808759E-001   -1.07274210E+001   -2.64512876E+001   -1.06126984E+001
    1.02000000E+002    1.20000000E+001   -1.53224165E-001   -3.76158384E-001   -8.35103485E-003   -1.44846744E-001   -1.49895169E+001   -2.39310529E+001   -1.44679711E+001
    1.06000000E+002    1.20000000E+001    1.61545031E-001   -1.70343471E-001    3.04118582E-002   -1.60696773E-001   -1.97510444E+001   -2.28906723E+001   -1.80328146E+001
    1.10000000E+002    1.20000000E+001    3.60753474E-001    1.44587115E-001    7.72163720E-002   -1.42290630E-001   -1.53724754E+001   -2.29791366E+001   -1.46775936E+001
    1.14000000E+002    1.20000000E+001    3.45638149E-001    4.89501703E-001    1.05952563E-001   -9.01119646E-002   -1.16117560E+001   -2.42977028E+001   -1.13838557E+001
    1.18000000E+002    1.20000000E+001    9.63729728E-002    7.18667816E-001    9.16457564E-002   -2.50044539E-002   -9.95567193E+000   -2.76095683E+001   -9.88176349E+000
    1.22000000E+002    1.20000000E+001   -2.80613560E-001    6.87890392E-001    2.98211595E-002    1.48002122E-002   -9.74474333E+000   -3.67168789E+001   -9.73603099E+000
    1.26000000E+002    1.20000000E+001   -5.72181480E-001    3.60187644E-001   -4.97883754E-002   -5.62842862E-003   -1.05632730E+001   -3.31659310E+001   -1.05394866E+001
    1.30000000E+002    1.20000000E+001   -5.70010256E-001   -1.20862223E-001   -9.18343403E-002   -8.77405259E-002   -1.18549941E+001   -2.50867721E+001   -1.16533955E+001
    1.34000000E+002    1.20000000E+001   -2.26512745E-001   -4.72265288E-001   -5.10943116E-002   -1.83681132E-001   -1.27807084E+001   -2.15586688E+001   -1.22403402E+001
    1.38000000E+002    1.20000000E+001    2.62270966E-001   -4.44477714E-001    6.52239373E-002   -2.17977271E-001   -1.29091698E+001   -2.00230046E+001   -1.21378016E+001
    1.42000000E+002    1.20000000E+001    5.50775108E-001   -2.42474218E-002    1.86813876E-001   -1.42766013E-001   -1.23357446E+001   -1.97378369E+001   -1.16100018E+001